<?xml version="1.0" encoding="UTF-8"?>

<!-- generated on 2026-01-06T12:31:51.967052+05:30 by Eclipse SUMO sumo 1.25.0
<sumoConfiguration xmlns:xsi="http://www.w3.org/2001/XMLSchema-instance" xsi:noNamespaceSchemaLocation="http://sumo.dlr.de/xsd/sumoConfiguration.xsd">

    <input>
        <net-file value="RVCE_Network.net.xml"/>
        <route-files value="Routes.xml"/>
    </input>

    <output>
        <human-readable-time value="true"/>
        <vehroute-output value="vehRouteOutputMicro.xml"/>
        <vehroute-output.sorted value="true"/>
        <vehroute-output.cost value="true"/>
        <vehroute-output.route-length value="true"/>
    </output>

    <time>
        <begin value="0"/>
        <end value="3600"/>
        <step-length value="1"/>
    </time>

    <processing>
        <threads value="1"/>
        <ignore-route-errors value="true"/>
        <time-to-teleport value="60"/>
    </processing>

    <routing>
        <routing-algorithm value="dijkstra"/>
    </routing>

    <report>
        <verbose value="true"/>
        <log value="logMicro.xml"/>
    </report>

    <mesoscopic>
        <mesosim value="false"/>
    </mesoscopic>

    <random_number>
        <seed value="0"/>
    </random_number>

</sumoConfiguration>
-->

<routes xmlns:xsi="http://www.w3.org/2001/XMLSchema-instance" xsi:noNamespaceSchemaLocation="http://sumo.dlr.de/xsd/routes_file.xsd">
    <vehicle id="0" depart="00:00:00" arrival="00:00:47" routeLength="730.58">
        <route cost="-1.00" savings="0.00" edges="150633488#2 150633488#3 150633488#4 150633488#5 150633488#6 150633488#7 150633488#8 150633488#9 150633488#10 150633488#11 150633488#12 150633488#13 -113391340#8 152209712#0 152209712#1 152209712#2 -1101380063"/>
    </vehicle>

    <vehicle id="1" depart="00:00:02" arrival="00:00:45" routeLength="405.09">
        <route cost="-1.00" savings="0.00" edges="-172671077#2 -1428266427#1 -172671123#3 -172671082#2 -172671082#1 -172671082#0 -172671057#0"/>
    </vehicle>

    <vehicle id="2" depart="00:00:04" arrival="00:00:35" routeLength="253.73">
        <route cost="-1.00" savings="0.00" edges="152209786#1 124553102#2 124553102#3 -152209672#3 -152209672#2 -152209672#1 152209765 152209692#10"/>
    </vehicle>

    <vehicle id="3" depart="00:00:06" arrival="00:03:34" routeLength="2800.70">
        <route cost="-1.00" savings="0.00" edges="-705661210#1 -705661210#0 -705661209 661676529#0 661676529#1 661676529#2 661676529#3 661676529#4 705661208#0 705661208#1 465135525#1 465135525#2 465135525#3 465135525#4 465135525#5 465135525#6 465135525#7 465135525#8 465135525#9 465135525#10 1387959014#4 1256551089#12 1256551089#13 1256551089#14 1256551089#15 1256551089#16 1256551089#17 1256551089#18 1256551089#19 1256551089#20 1256551090 172671083 1283609000 1283609001 172671061#0 721579268#0 721579268#1 721579268#2 721579268#3 -1101415018#0"/>
    </vehicle>

    <vehicle id="4" depart="00:00:08" arrival="00:02:17" routeLength="1846.02">
        <route cost="-1.00" savings="0.00" edges="-1101380042 149584334#10 149584334#11 149584334#12 149584334#13 149584334#14 149584334#15 149584334#16 149584334#17 149584334#18 149584334#19 149584334#20 149584334#21 149584334#22 150633488#2 150633488#3 150633488#4 150633488#5 150633488#6 150633488#7 150633488#8 150633488#9 150633488#10 150633488#11 150633488#12 150633488#13 1157841102#0 1157841102#1 1157841103 150635013#0 -168106158#8 -168106158#7 -168106158#6 152209692#0 152209692#1 152209692#2 152209692#3 152209692#4 152209692#5 152209692#6 152209692#7 152209692#8 -152209778#4 -152209778#3 -152209778#2 -152209778#1 -152209778#0"/>
    </vehicle>

    <vehicle id="5" depart="00:00:10" arrival="00:02:33" routeLength="2204.19">
        <route cost="-1.00" savings="0.00" edges="150635006#4 150635007#2 -150635028#4 -150635028#3 -1101380038#0 149584334#11 149584334#12 149584334#13 149584334#14 149584334#15 149584334#16 149584334#17 149584334#18 149584334#19 149584334#20 149584334#21 149584334#22 150633488#2 150633488#3 150633488#4 150633488#5 150633488#6 150633488#7 150633488#8 150633488#9 150633488#10 150633488#11 150633488#12 150633488#13 1157841102#0 1157841102#1 1157841103 150635013#0 -168106158#8 -168106158#7 -168106158#6 152209692#0 152209692#1 152209692#2 152209692#3 152209692#4 152209692#5 152209692#6 152209692#7 -798318774#2 -798318774#1 -1444442145 -152209719#2 -152209719#1 124553125#3 124553125#4 124553125#5"/>
    </vehicle>

    <vehicle id="6" depart="00:00:12" arrival="00:01:16" routeLength="821.54">
        <route cost="-1.00" savings="0.00" edges="-152209746#2 -152209664#0 -150635013#4 -150635013#3 -150635013#2 -150635013#1 -150635013#0 -1157841103 -1157841102#1 -1157841102#0 -113391340#8 -113391340#7 -113391340#6 -113391340#5 -113391340#4 -113391340#3 -113391340#2 -113391340#1 -113391340#0 1387959014#0"/>
    </vehicle>

    <vehicle id="7" depart="00:00:14" arrival="00:05:35" routeLength="3535.78">
        <route cost="-1.00" savings="0.00" edges="215279301#9 215279301#10 23056409#2 23056409#3 23056409#4 23056409#5 23056409#6 796942782 23057480#0 23057480#1 23057480#2 23057480#3 23057480#4 23057480#5 23057480#6 23057480#7 23057480#8 23057480#9 23057480#10 23057480#11 148579222 148579226 607860783#6 607860783#7 607860783#8 607860783#9 607860783#10 607860783#11 607860783#12 607860783#13 607860783#14 607860783#15 607860783#16 607860783#17 607860783#18 607860783#19 1256551089#0 1256551089#1 1256551089#2 1256551089#3 1256551089#4 1256551089#5 1256551089#6 1256551089#7 1256551089#8 1256551089#9 1256551089#10 1256551089#11 1256551089#12 1256551089#13 1256551089#14 1256551089#15 1256551089#16 1256551089#17 1256551089#18 1256551089#19 1256551089#20 -172671070 1256551091#0 726486926#0 726486926#1 437563238#1 437563238#2 -798360712#3 -798360712#2 -798360712#1 -1099316227#0"/>
    </vehicle>

    <vehicle id="8" depart="00:00:16" arrival="00:04:24" routeLength="3707.24">
        <route cost="-1.00" savings="0.00" edges="215279301#0 215279301#1 -1227946087 -321207771#1 -321207771#0 23056409#4 23056409#5 23056409#6 796942782 23057480#0 23057480#1 23057480#2 23057480#3 23057480#4 23057480#5 23057480#6 23057480#7 23057480#8 23057480#9 23057480#10 23057480#11 148579222 148579226 607860783#6 607860783#7 607860783#8 607860783#9 607860783#10 607860783#11 607860783#12 607860783#13 607860783#14 607860783#15 607860783#16 607860783#17 607860783#18 607860783#19 1256551089#0 1256551089#1 1256551089#2 1256551089#3 1256551089#4 1256551089#5 1256551089#6 1256551089#7 1256551089#8 1256551089#9 1256551089#10 1256551089#11 -1387959014#4 -1387959014#3 -1387959014#2 -1387959014#1 -1387959014#0 113391340#0 113391340#1 113391340#2 113391340#3 113391340#4 113391340#5 113391340#6 113391340#7 113391340#8 1157841102#0 1157841102#1 1157841103 150635013#0 -168106158#8 -168106158#7 -168106158#6 -168106158#5 152209748#0 152209748#1 152209748#2 152209748#3 152209748#4 152209735#0"/>
    </vehicle>

    <vehicle id="9" depart="00:00:18" arrival="00:03:55" routeLength="3527.91">
        <route cost="-1.00" savings="0.00" edges="-23056565#8 172671068#0 172671068#1 172671068#2 -1201895976 -1101428772#0 -796758650#5 -796758650#4 -796758650#3 -796758651 -172671068#0 23056565#8 23056565#9 23056565#10 23056565#11 23056565#12 23056565#13 23056565#14 23056565#15 23056565#16 23056565#17 23056565#18 23056565#19 23056565#20 23056565#21 23056565#22 23056565#23 23056565#24 636268137 1198866453#0 1198866453#1 532662022#0 532662022#1 532662022#2 532662022#3 532662022#4 532662022#5 532662022#6 1256551089#0 1256551089#1 1256551089#2 1256551089#3 1256551089#4 1256551089#5 1256551089#6 1256551089#7 1256551089#8 1256551089#9 1256551089#10 1256551089#11 -1387959014#4 -1387959014#3 -1387959014#2 -1387959014#1 -1387959014#0 113391340#0 113391340#1 113391340#2 113391340#3 113391340#4 113391340#5 113391340#6 113391340#7 113391340#8 1157841102#0 1157841102#1 1157841103 150635013#0 -168106158#8 -168106158#7 -152209769#2 -152209665#6 -152209665#5"/>
    </vehicle>

    <vehicle id="10" depart="00:00:20" arrival="00:02:05" routeLength="1457.61">
        <route cost="-1.00" savings="0.00" edges="793850719 152209723#0 152209723#1 152209727#4 152209727#5 152209727#6 152209727#7 152209789#1 152209789#2 152209789#3 152209692#0 152209692#1 152209692#2 152209692#3 152209692#4 152209692#5 152209692#6 152209692#7 152209692#8 152209692#9 152209692#10 152209692#11 152209692#12 1157572499 1452011022 1157572498#0 1157572498#1 1157572498#2 -322182520"/>
    </vehicle>

    <vehicle id="11" depart="00:00:22" arrival="00:04:26" routeLength="3352.51">
        <route cost="-1.00" savings="0.00" edges="-1265721157#0 -215279335#0 23057480#8 23057480#9 23057480#10 23057480#11 148579222 148579226 607860783#6 607860783#7 607860783#8 607860783#9 607860783#10 607860783#11 607860783#12 607860783#13 607860783#14 607860783#15 607860783#16 607860783#17 607860783#18 607860783#19 1256551089#0 1256551089#1 1256551089#2 1256551089#3 1256551089#4 1256551089#5 1256551089#6 1256551089#7 1256551089#8 1256551089#9 1256551089#10 1256551089#11 -1387959014#4 -1387959014#3 -1387959014#2 -1387959014#1 -1387959014#0 113391340#0 113391340#1 113391340#2 113391340#3 113391340#4 113391340#5 113391340#6 113391340#7 113391340#8 1157841102#0 1157841102#1 1157841103 150635013#0 -168106158#8 -168106158#7 -168106158#6 -168106158#5 -168106158#4 -168106158#3 -168106158#2 -168106158#1 -168106158#0 -1185269733#8 -1185269733#7 -1185269733#6 -1185269733#5 -1185269733#4 -1185269733#3 -1185269733#2 -1185269733#1 -1185269733#0 152209684#0 152209684#1 152209684#2 -152209803#1 -1444435998#0"/>
    </vehicle>

    <vehicle id="12" depart="00:00:24" arrival="00:03:11" routeLength="2394.21">
        <route cost="-1.00" savings="0.00" edges="23057480#8 23057480#9 23057480#10 23057480#11 148579222 148579226 607860783#6 607860783#7 607860783#8 607860783#9 607860783#10 607860783#11 607860783#12 607860783#13 607860783#14 607860783#15 607860783#16 607860783#17 607860783#18 607860783#19 1256551089#0 1256551089#1 1256551089#2 1256551089#3 1256551089#4 1256551089#5 1256551089#6 1256551089#7 1256551089#8 1256551089#9 1256551089#10 1256551089#11 -1387959014#4 -1387959014#3 -1387959014#2 -1387959014#1 -1387959014#0 113391340#0 113391340#1 113391340#2 113391340#3 113391340#4 113391340#5 113391340#6 113391340#7 113391340#8 1157841102#0 1099316250#0 1099316250#1 1444439008"/>
    </vehicle>

    <vehicle id="13" depart="00:00:26" arrival="00:01:32" routeLength="355.62">
        <route cost="-1.00" savings="0.00" edges="1154922452 1317866368 1152830049 -172671120#2 -172671120#1 -796758619#1 -796758619#0 172671165#1 23056565#14 172671059#0 172671059#1 796758657#0 796758657#1"/>
    </vehicle>

    <vehicle id="14" depart="00:00:28" arrival="00:02:26" routeLength="1771.50">
        <route cost="-1.00" savings="0.00" edges="-544981386#1 23056409#5 23056409#6 796942782 23057480#0 23057480#1 23057480#2 23057480#3 23057480#4 23057480#5 23057480#6 23057480#7 23057480#8 23057480#9 23057480#10 23057480#11 148579222 148579226 607860783#6 607860783#7 607860783#8 607860783#9 607860783#10 607860783#11 607860783#12 607860783#13 607860783#14 607860783#15 607860783#16 607860783#17 607860783#18 607860783#19 1256551089#0 1256551089#1 1256551089#2 1256551089#3 1256551089#4"/>
    </vehicle>

    <vehicle id="15" depart="00:00:30" arrival="00:04:23" routeLength="3406.58">
        <route cost="-1.00" savings="0.00" edges="23056565#12 23056565#13 23056565#14 23056565#15 23056565#16 23056565#17 23056565#18 23056565#19 23056565#20 23056565#21 23056565#22 23056565#23 23056565#24 636268137 1198866453#0 1198866453#1 532662022#0 532662022#1 532662022#2 532662022#3 532662022#4 532662022#5 532662022#6 1256551089#0 1256551089#1 1256551089#2 1256551089#3 1256551089#4 1256551089#5 1256551089#6 1256551089#7 1256551089#8 1256551089#9 1256551089#10 1256551089#11 -1387959014#4 465135525#11 465135525#12 465135525#13 465135525#14 465135525#15 465135525#16 465135525#17 465135525#18 465135525#19 465135525#20 780585964 -1265724887 -1265724886 -1156224676 -1183880759 -150635014#3 -150635014#2 -150635014#1 -150635014#0 -149584334#16 -149584334#15 -150635009#3 -150635009#2 150635028#0 150635028#1 -1101380036#1 149584334#13 149584334#14 149584334#15 149584334#16"/>
    </vehicle>

    <vehicle id="16" depart="00:00:32" arrival="00:05:43" routeLength="4535.05">
        <route cost="-1.00" savings="0.00" edges="321207767#1 -321207765#2 -660103962#1 1077692289#0 1077692289#1 321207740#0 1167897866#3 1167897866#4 1167897866#5 1167897866#6 1167897866#7 23056565#0 23056565#1 23056565#2 23056565#3 23056565#4 23056565#5 23056565#6 23056565#7 23056565#8 23056565#9 23056565#10 23056565#11 23056565#12 23056565#13 23056565#14 23056565#15 23056565#16 23056565#17 23056565#18 23056565#19 23056565#20 23056565#21 23056565#22 23056565#23 23056565#24 636268137 1198866453#0 1198866453#1 532662022#0 532662022#1 532662022#2 532662022#3 532662022#4 532662022#5 532662022#6 1256551089#0 1256551089#1 1256551089#2 1256551089#3 1256551089#4 1256551089#5 1256551089#6 1256551089#7 1256551089#8 1256551089#9 1256551089#10 1256551089#11 1256551089#12 1256551089#13 1256551089#14 1256551089#15 1256551089#16 1256551089#17 1256551089#18 1256551089#19 1256551089#20 1256551090 172671083 1283609000 1283609001 172671061#0 721579268#0 721579268#1 721579268#2 721579268#3 721579268#4 721579268#5 721579268#6 721579267#0 1313217468#0"/>
    </vehicle>

    <vehicle id="17" depart="00:00:34" arrival="00:04:48" routeLength="2615.85">
        <route cost="-1.00" savings="0.00" edges="152209727#3 152209727#4 152209727#5 152209727#6 152209727#7 152209789#1 152209789#2 152209789#3 168106158#6 168106158#7 168106158#8 -150635013#0 -1157841103 -1157841102#1 -1157841102#0 -113391340#8 -113391340#7 -113391340#6 -113391340#5 -113391340#4 -113391340#3 -113391340#2 -113391340#1 -113391340#0 1387959014#0 1387959014#1 1387959014#2 1387959014#3 1387959014#4 1256551089#12 1256551089#13 1256551089#14 1256551089#15 1256551089#16 1256551089#17 1256551089#18 1256551089#19 1256551089#20 -172671070 1256551091#0 726486926#0 726486926#1 437563238#1 437563238#2 -798360712#3 -1157248004 -1099316229#1 -1157248005#1"/>
    </vehicle>

    <vehicle id="18" depart="00:00:36" arrival="00:02:19" routeLength="1625.93">
        <route cost="-1.00" savings="0.00" edges="-1198866453#0 -636268137 -23056565#24 -23056565#23 -23056565#22 -23056565#21 -23056565#20 -23056565#19 -23056565#18 -23056565#17 -23056565#16 -23056565#15 -23056565#14 -23056565#13 -23056565#12 -23056565#11 -23056565#10 -23056565#9 -23056565#8 -23056565#7 -23056565#6 -23056565#5 -23056565#4 -23056565#3 -23056565#2 -23056565#1 1427923057#5 1427923057#6 1427963436#0 1427963436#1 321207740#0 1167897866#3 1167897866#4 -172671063#2 -172671063#1"/>
    </vehicle>

    <vehicle id="19" depart="00:00:38" arrival="00:04:19" routeLength="3078.06">
        <route cost="-1.00" savings="0.00" edges="-321207770#3 -321207770#2 -321207770#1 -321207770#0 23056401#4 23056401#5 23056401#6 796942782 23057480#0 23057480#1 23057480#2 23057480#3 23057480#4 23057480#5 23057480#6 23057480#7 23057480#8 23057480#9 23057480#10 23057480#11 148579222 148579226 607860783#6 607860783#7 607860783#8 607860783#9 607860783#10 607860783#11 607860783#12 607860783#13 607860783#14 607860783#15 607860783#16 607860783#17 607860783#18 607860783#19 1256551089#0 1256551089#1 1256551089#2 1256551089#3 1256551089#4 1256551089#5 1256551089#6 1256551089#7 1256551089#8 1256551089#9 1256551089#10 1256551089#11 -1387959014#4 -1387959014#3 -1387959014#2 -1387959014#1 -1387959014#0 113391340#0 113391340#1 113391340#2 113391340#3 113391340#4 113391340#5 113391340#6 113391340#7 113391340#8 -150633488#13 -150633488#12 -150633488#11 -152209685 -152209716#3 -152209716#2 -152209802#4"/>
    </vehicle>

    <vehicle id="20" depart="00:00:40" arrival="00:04:56" routeLength="3466.46">
        <route cost="-1.00" savings="0.00" edges="-172671066#0 -172671068#5 -172671068#4 -172671068#3 -172671068#2 -172671068#1 -172671068#0 23056565#8 23056565#9 23056565#10 23056565#11 23056565#12 23056565#13 23056565#14 23056565#15 23056565#16 23056565#17 23056565#18 23056565#19 23056565#20 23056565#21 23056565#22 23056565#23 23056565#24 636268137 1198866453#0 1198866453#1 532662022#0 532662022#1 532662022#2 532662022#3 532662022#4 532662022#5 532662022#6 1256551089#0 1256551089#1 1256551089#2 1256551089#3 1256551089#4 1256551089#5 1256551089#6 1256551089#7 1256551089#8 1256551089#9 1256551089#10 1256551089#11 1256551089#12 1256551089#13 1256551089#14 1256551089#15 1256551089#16 1256551089#17 1256551089#18 1256551089#19 1256551089#20 -172671070 1256551091#0 726486926#0 726493564"/>
    </vehicle>

    <vehicle id="21" depart="00:00:42" arrival="00:02:39" routeLength="1232.84">
        <route cost="-1.00" savings="0.00" edges="-152209649#0 124553125#9 124553125#10 168106158#0 168106158#1 168106158#2 168106158#3 168106158#4 168106158#5 168106158#6 168106158#7 168106158#8 -150635013#0 -1157841103 -1157841102#1 -1157841102#0 -150633488#13 -150633488#12 -150633488#11 -152209685 -152209716#3 -152209812 152209802#2 152209802#3 152209802#4"/>
    </vehicle>

    <vehicle id="22" depart="00:00:44" arrival="00:03:48" routeLength="2727.62">
        <route cost="-1.00" savings="0.00" edges="798360717#2 798360717#3 -798360719#3 -798360719#2 -798360719#1 -798360719#0 798360713#3 1313196288 661676529#2 661676529#3 661676529#4 705661208#0 705661208#1 465135525#1 465135525#2 465135525#3 465135525#4 465135525#5 465135525#6 465135525#7 465135525#8 465135525#9 465135525#10 -1387959014#3 -1387959014#2 -1387959014#1 -1387959014#0 113391340#0 113391340#1 113391340#2 113391340#3 113391340#4 113391340#5 113391340#6 113391340#7 113391340#8 -150633488#13 -150633488#12 -150633488#11 -150633488#10 -150633488#9 -150633488#8 -150633488#7 -150633488#6 -150633488#5 -150633488#4 -150633488#3 -150633488#2 -150633488#1 150635006#0 150635006#1 150635009#0 150635009#1"/>
    </vehicle>

    <vehicle id="23" depart="00:00:46" arrival="00:05:03" routeLength="3100.12">
        <route cost="-1.00" savings="0.00" edges="1201895976 -172671068#2 -172671068#1 -172671068#0 23056565#8 23056565#9 23056565#10 23056565#11 23056565#12 23056565#13 23056565#14 23056565#15 23056565#16 23056565#17 23056565#18 23056565#19 23056565#20 23056565#21 23056565#22 23056565#23 23056565#24 636268137 1198866453#0 1198866453#1 532662022#0 532662022#1 532662022#2 532662022#3 532662022#4 532662022#5 532662022#6 1256551089#0 1256551089#1 1256551089#2 1256551089#3 1256551089#4 1256551089#5 1256551089#6 1256551089#7 1256551089#8 1256551089#9 1256551089#10 1256551089#11 -1387959014#4 -1387959014#3 -1387959014#2 -1387959014#1 -1387959014#0 113391340#0 113391340#1 113391340#2 113391340#3 113391340#4 113391340#5 113391340#6 113391340#7 113391340#8 -150633488#13 -150633488#12 -150633488#11 -150633488#10 152209745#0 152209745#1 152209714"/>
    </vehicle>

    <vehicle id="24" depart="00:00:48" arrival="00:01:46" routeLength="554.99">
        <route cost="-1.00" savings="0.00" edges="23056744#6 23056744#7 172671050#3 172671050#4 172671050#5 172671050#6 172671050#7 172671050#8 172671050#9 172671050#10 -172671066#3 796758645 172671130#1"/>
    </vehicle>

    <vehicle id="25" depart="00:00:50" arrival="00:04:14" routeLength="3053.67">
        <route cost="-1.00" savings="0.00" edges="-215279318#2 -215279318#1 -215279318#0 -1343719061 1265724910 1265724912#4 1265724912#0 1265724912#1 1265724912#2 1265724911 1343719061 215279318#0 215279318#1 215279318#2 -1186658483 -1091999632 -1091999626#5 -1091999626#4 -1091999626#3 -1091999626#2 -1091999626#1 -771373930 -23056565#19 -23056565#18 -23056565#17 -23056565#16 -23056565#15 -23056565#14 -23056565#13 -23056565#12 -23056565#11 -23056565#10 -23056565#9 -23056565#8 -23056565#7 -23056565#6 -23056565#5 -23056565#4 -23056565#3 -23056565#2 -23056565#1 -23056565#0 1167897866#8 172671064#0 172671064#1 174416905#1 -172671180#1 -172671180#0"/>
    </vehicle>

    <vehicle id="26" depart="00:00:52" arrival="00:02:00" routeLength="749.17">
        <route cost="-1.00" savings="0.00" edges="150635012#0 150635012#1 149584334#18 149584334#19 149584334#20 149584334#21 149584334#22 -150633488#1 150635006#0 -787385079#2"/>
    </vehicle>

    <vehicle id="27" depart="00:00:54" arrival="00:05:53" routeLength="3831.52">
        <route cost="-1.00" savings="0.00" edges="655778010#3 23056331#2 296786707#0 296786707#1 655522177#0 655522177#1 -172671076#2 -172671076#1 -172671076#0 23057480#0 23057480#1 23057480#2 23057480#3 23057480#4 23057480#5 23057480#6 23057480#7 23057480#8 23057480#9 23057480#10 23057480#11 148579222 148579226 607860783#6 607860783#7 607860783#8 607860783#9 607860783#10 607860783#11 607860783#12 607860783#13 607860783#14 607860783#15 607860783#16 607860783#17 607860783#18 607860783#19 1256551089#0 1256551089#1 1256551089#2 1256551089#3 1256551089#4 1256551089#5 1256551089#6 1256551089#7 1256551089#8 1256551089#9 1256551089#10 1256551089#11 1256551089#12 1256551089#13 1256551089#14 1256551089#15 1256551089#16 1256551089#17 1256551089#18 1256551089#19 1256551089#20 -172671070 1256551091#0 726486926#0 726486926#1 437563238#1 437563238#2 437563238#3 1313196023 1313196024#2 1313196024#3 1313196024#4 1313196024#5 1313196024#6 1099316230#0"/>
    </vehicle>

    <vehicle id="28" depart="00:00:56" arrival="00:02:53" routeLength="1702.47">
        <route cost="-1.00" savings="0.00" edges="1265724900#1 1265724896 1265724899 -1091999626#2 -1091999626#1 -771373930 -23056565#19 -23056565#18 -23056565#17 -23056565#16 -23056565#15 -23056565#14 -23056565#13 -23056565#12 172671146#0 172671146#1 172671146#2 172671146#3 172671129#0 172671116#0 546097553#0 546097553#1 546097553#2"/>
    </vehicle>

    <vehicle id="29" depart="00:00:58" arrival="00:02:43" routeLength="1238.41">
        <route cost="-1.00" savings="0.00" edges="-546097553#9 -546097553#8 215279341#0 215279341#1 215279341#2 215279341#3 660103962#0 1077692289#0 1077692289#1 321207740#0 1167897866#3 1167897866#4 1167897866#5 1167897866#6 1167897866#7 23056565#0 23056565#1 23056565#2 23056565#3 23056565#4 23056565#5 23056565#6 23056565#7 172671068#0 172671068#1 172671068#2 172671068#3 172671068#4 172671068#5 172671066#0 172671066#1 172671066#2 172671066#3 -172671050#10 -172671050#9 -172671050#8"/>
    </vehicle>

    <vehicle id="30" depart="00:01:00" arrival="00:03:26" routeLength="2457.97">
        <route cost="-1.00" savings="0.00" edges="800208021#3 800208021#4 800208021#5 796892441 23057480#3 23057480#4 23057480#5 23057480#6 23057480#7 23057480#8 23057480#9 23057480#10 23057480#11 148579222 148579226 607860783#6 607860783#7 607860783#8 607860783#9 607860783#10 607860783#11 607860783#12 607860783#13 607860783#14 607860783#15 607860783#16 607860783#17 607860783#18 607860783#19 1256551089#0 1256551089#1 1256551089#2 1256551089#3 1256551089#4 1256551089#5 1256551089#6 1256551089#7 1256551089#8 1256551089#9 1256551089#10 1256551089#11 -1387959014#4 -1387959014#3 -1387959014#2 -1387959014#1 -1387959014#0 113391340#0 113391340#1 113391340#2 113391340#3 113391340#4 113391340#5 113391340#6 113391340#7"/>
    </vehicle>

    <vehicle id="31" depart="00:01:02" arrival="00:02:26" routeLength="1028.37">
        <route cost="-1.00" savings="0.00" edges="-124553125#7 -124553125#6 -124553125#5 -124553125#4 -124553125#3 -124553125#2 152209778#0 152209778#1 152209778#2 152209778#3 152209778#4 152209692#9 152209692#10 152209692#11 152209692#12 1157572499 1452011022 1157572498#0 1157572498#1 1157572498#2 1157572498#3 1387959015#0 1387959015#1 1387959016 -1157572498#3"/>
    </vehicle>

    <vehicle id="32" depart="00:01:04" arrival="00:05:44" routeLength="3285.35">
        <route cost="-1.00" savings="0.00" edges="-1318751418 -172671146#1 -172671146#0 23056565#12 23056565#13 23056565#14 23056565#15 23056565#16 23056565#17 23056565#18 23056565#19 23056565#20 23056565#21 23056565#22 23056565#23 23056565#24 636268137 1198866453#0 1198866453#1 532662022#0 532662022#1 532662022#2 532662022#3 532662022#4 532662022#5 532662022#6 1256551089#0 1256551089#1 1256551089#2 1256551089#3 1256551089#4 1256551089#5 1256551089#6 1256551089#7 1256551089#8 1256551089#9 1256551089#10 1256551089#11 -1387959014#4 465135525#11 465135525#12 465135525#13 465135525#14 465135525#15 465135525#16 465135525#17 465135525#18 465135525#19 465135525#20 780585964 -1265724887 -1265724886 -1156224676 -1183880759 -150635014#3 -150635014#2 -150635014#1 -150635001#7 -150635001#6 -150635001#5 -150635001#4 -150635001#3 -150635001#2 -150635001#1 -150635001#0 150633488#5 150633488#6 150633488#7 150633488#8"/>
    </vehicle>

    <vehicle id="33" depart="00:01:06" arrival="00:02:44" routeLength="1023.05">
        <route cost="-1.00" savings="0.00" edges="172671148#3 172671148#4 1312232277#2 -545248928#6 -545248928#5 -545248928#4 -545248928#3 -545248928#2 -545248928#1 -545248928#0 -1442516750 1427963438#0 1427963438#1 1427963438#2 172671162#0 172671162#1 172671162#2 -796758666"/>
    </vehicle>

    <vehicle id="34" depart="00:01:08" arrival="00:01:30" routeLength="207.77">
        <route cost="-1.00" savings="0.00" edges="-1157248005#0 1099316227#0 -798360712#0 -705661210#0"/>
    </vehicle>

    <vehicle id="35" depart="00:01:10" arrival="00:03:23" routeLength="1974.25">
        <route cost="-1.00" savings="0.00" edges="796758651 796758650#3 796758650#4 796758650#5 1101428772#0 1201895976 -172671068#2 -172671068#1 -172671068#0 -23056565#7 -23056565#6 -23056565#5 -23056565#4 -23056565#3 -23056565#2 -23056565#1 1427923057#5 1427923057#6 1427963436#0 1427963436#1 1427963436#2 1427963436#3 1427963436#4 1427963435 1259770241#0 1259770241#1 1259770241#2 1427923059 1259770239#0 -296786313#1 -296786313#0 -1429007853 296786309#0 23056401#1 23056401#2 23056401#3 321207770#0 321207770#1 321207770#2 321207770#3"/>
    </vehicle>

    <vehicle id="36" depart="00:01:12" arrival="00:03:25" routeLength="1886.24">
        <route cost="-1.00" savings="0.00" edges="-1099316235#0 465135525#3 465135525#4 465135525#5 465135525#6 465135525#7 465135525#8 465135525#9 465135525#10 -1387959014#3 -1387959014#2 -1387959014#1 -1387959014#0 113391340#0 113391340#1 113391340#2 113391340#3 113391340#4 113391340#5 113391340#6 113391340#7 113391340#8 1157841102#0 1157841102#1 1157841103 150635013#0 -168106158#8 -168106158#7 -168106158#6 -168106158#5 -168106158#4 -168106158#3 -168106158#2 -168106158#1 -168106158#0 -152209780#8 -152209780#7 -152209780#6 -152209780#5 -1444430068 -1444430067 -1099316258#0 152209780#4"/>
    </vehicle>

    <vehicle id="37" depart="00:01:14" arrival="00:06:24" routeLength="4060.39">
        <route cost="-1.00" savings="0.00" edges="-172671066#0 -172671068#5 -172671068#4 -172671068#3 -172671068#2 -172671068#1 -172671068#0 23056565#8 23056565#9 23056565#10 23056565#11 23056565#12 23056565#13 23056565#14 23056565#15 23056565#16 23056565#17 23056565#18 23056565#19 23056565#20 23056565#21 23056565#22 23056565#23 23056565#24 636268137 1198866453#0 1198866453#1 532662022#0 532662022#1 532662022#2 532662022#3 532662022#4 532662022#5 532662022#6 1256551089#0 1256551089#1 1256551089#2 1256551089#3 1256551089#4 1256551089#5 1256551089#6 1256551089#7 1256551089#8 1256551089#9 1256551089#10 1256551089#11 -1387959014#4 465135525#11 465135525#12 465135525#13 465135525#14 465135525#15 465135525#16 465135525#17 465135525#18 465135525#19 465135525#20 780585964 -1265724887 -1265724886 -1156224676 -1183880759 -150635014#3 -150635014#2 -150635014#1 -150635014#0 -149584334#16 -149584334#15 -149584334#14 -149584334#13 -149584334#12 -149584334#11 -149584334#10 -149584334#9 -149584334#8 -149584334#7 -149584334#6 -149584334#5 -149584334#4 -149584334#3 -149584334#2 150635011#0"/>
    </vehicle>

    <vehicle id="38" depart="00:01:16" arrival="00:03:53" routeLength="1901.00">
        <route cost="-1.00" savings="0.00" edges="-1343719061 1265724910 1265724912#4 1265724912#0 1265724909 -1343719060 -1265724914 -1156224680#1 -1156224680#0 1256551089#9 1256551089#10 1256551089#11 1256551089#12 1256551089#13 1256551089#14 1256551089#15 1256551089#16 1256551089#17 1256551089#18 1256551089#19 1256551089#20 -172671070 1256551091#0 726486926#0 726486926#1 437563238#1 -798360713#3 798360719#0 798360719#1 -798360714#1"/>
    </vehicle>

    <vehicle id="39" depart="00:01:18" arrival="00:05:25" routeLength="3234.17">
        <route cost="-1.00" savings="0.00" edges="-796758647#0 796758650#5 1101428772#0 1201895976 -172671068#2 -172671068#1 -172671068#0 23056565#8 23056565#9 23056565#10 23056565#11 23056565#12 23056565#13 23056565#14 23056565#15 23056565#16 23056565#17 23056565#18 23056565#19 23056565#20 23056565#21 23056565#22 23056565#23 23056565#24 636268137 1198866453#0 1198866453#1 532662022#0 532662022#1 532662022#2 532662022#3 532662022#4 532662022#5 532662022#6 1256551089#0 1256551089#1 1256551089#2 1256551089#3 1256551089#4 1256551089#5 1256551089#6 1256551089#7 1256551089#8 1256551089#9 1256551089#10 1256551089#11 -1387959014#4 -1387959014#3 -1387959014#2 -1387959014#1 -1387959014#0 113391340#0 113391340#1 113391340#2 113391340#3 113391340#4 113391340#5 113391340#6 113391340#7 113391340#8 -150633488#13 -150633488#12 -150633488#11 -150633488#10 -150633488#9 793730725#0 793730725#1"/>
    </vehicle>

    <vehicle id="40" depart="00:01:20" arrival="00:04:07" routeLength="2112.01">
        <route cost="-1.00" savings="0.00" edges="1099316230#0 1099341084 661676529#3 661676529#4 705661208#0 705661208#1 465135525#1 465135525#2 465135525#3 465135525#4 465135525#5 465135525#6 465135525#7 465135525#8 465135525#9 465135525#10 -1387959014#3 -1387959014#2 -1387959014#1 -1387959014#0 1387959016 -1157572498#3 -1157572498#2 -1157572498#1 -1157572498#0 -1452011022 -1157572499 -152209692#12 -152209692#11 -152209692#10 -152209692#9 -152209692#8 -152209692#7 -152209692#6 -152209692#5 -152209692#4 -152209728#0"/>
    </vehicle>

    <vehicle id="41" depart="00:01:22" arrival="00:03:34" routeLength="1812.82">